the monte
8848 atoms
2912 bonds
2224 angles
0 dihedrals
0 impropers
13 atom types
3 bond types
5 angle types
0 dihedral types
0 improper types

0.00000 41.29100  xlo xhi
0.00000 35.83000  ylo yhi
0.00000 66.40328  zlo zhi

Masses

1 26.981500 # ao
2 28.086000 # st
3 15.999400 # ob
4 15.999400 # obos
5 15.999400 # ohs
6 15.999400 # ohy
7 24.305000 # mgo
8 1.007940 # hoy
9 6.941000 # li
10 15.999400 # ow
11 1.007940 # hw
12 15.999400 # eow
13 1.007940 # ehw

Pair Coeffs

1 0.0000013298 4.2712400000 # ao
2 0.0000018405 3.3020300000 # st
3 0.1554000000 3.1655400000 # ob
4 0.1554000000 3.1655400000 # obos
5 0.1554000000 3.1655400000 # ohs
6 0.1554000000 3.1655400000 # ohy
7 0.0000009030 5.2643200000 # mgo
8 0.0000000000 0.0000000000 # hoy
9 0.1553000000 1.4740000000 # li
10 0.1553000000 3.1660000000 # ow
11 0.0000000000 0.0000000000 # hw
12 0.1553000000 3.1660000000 # eow
13 0.0000000000 0.0000000000 # ehw

Bond Coeffs

1 554.1300 1.000 # hoy-ohy
2 554.1300 1.0000 # hw-ow
3 517.600 1.000 # eow-ehw

Angle Coeffs # harmonic 

1 6.00000 110.10000 # hoy-ohs-mgo
2 15.00000 110.10000 # hoy-ohs-ao
3 15.00000 110.10000 # hoy-ohy-ao
4 33.43000 109.47000 # hw-ow-hw
5 33.43000 109.47000 # ehw-eow-ehw

Atoms

1 1  1 1.575000 43.878000 1.496000 4.000000  #  ao
2 1  2 2.100000 44.665000 -0.046000 6.658000  #  st
3 1  2 2.100000 44.735000 2.918000 6.658000  #  st
4 1  3 -1.050000 44.564000 0.018000 5.039000  #  ob
5 1  4 -1.180800 44.835000 2.839000 5.039000  #  obos
6 1  5 -1.080800 42.249000 1.648000 5.039000  #  ohs
7 1  3 -1.050000 40.996000 3.410000 7.247000  #  ob
8 1  3 -1.050000 44.440000 1.439000 7.247000  #  ob
9 1  3 -1.050000 43.582000 3.959000 7.090000  #  ob
10 1  1 1.575000 41.317000 5.975000 4.000000  #  ao
11 1  2 2.100000 42.104000 4.432000 6.658000  #  st
12 1  2 2.100000 42.174000 7.397000 6.658000  #  st
13 1  4 -1.180800 42.003000 4.496000 5.039000  #  obos
14 1  3 -1.050000 42.274000 7.318000 5.039000  #  ob
15 1  6 -0.950000 44.849000 6.127000 5.039000  #  ohy
16 1  3 -1.050000 43.596000 7.889000 7.247000  #  ob
17 1  3 -1.050000 41.879000 5.918000 7.247000  #  ob
18 1  3 -1.050000 41.021000 8.438000 7.090000  #  ob
19 1  1 1.575000 43.904000 7.462000 4.000000  #  ao
20 1  2 2.100000 43.078000 0.046000 1.342000  #  st
21 1  2 2.100000 43.048000 6.039000 1.342000  #  st
22 1  3 -1.050000 43.179000 -0.018000 2.961000  #  ob
23 1  3 -1.050000 42.948000 6.118000 2.961000  #  ob
24 1  6 -0.950000 45.534000 7.310000 2.961000  #  ohy
25 1  3 -1.050000 46.787000 5.548000 0.753000  #  ob
26 1  3 -1.050000 43.342000 7.518000 0.753000  #  ob
27 1  3 -1.050000 44.201000 4.999000 0.910000  #  ob
28 1  7 1.360000 41.304000 2.983000 4.000000  #  mgo
29 1  2 2.100000 45.679000 4.525000 1.342000  #  st
30 1  2 2.100000 45.609000 1.560000 1.342000  #  st
31 1  4 -1.180800 45.780000 4.461000 2.961000  #  obos
32 1  4 -1.180800 45.509000 1.639000 2.961000  #  obos
33 1  5 -1.080800 42.934000 2.831000 2.961000  #  ohs
34 1  3 -1.050000 44.187000 1.069000 0.753000  #  ob
35 1  3 -1.050000 45.904000 3.040000 0.753000  #  ob
36 1  3 -1.050000 46.762000 0.520000 0.910000  #  ob
37 1  1 1.575000 7.749000 1.496000 4.000000  #  ao
38 1  2 2.100000 8.536000 -0.046000 6.658000  #  st
39 1  2 2.100000 8.605000 2.918000 6.658000  #  st
40 1  3 -1.050000 8.435000 0.018000 5.039000  #  ob
41 1  3 -1.050000 8.705000 2.839000 5.039000  #  ob
42 1  5 -1.080800 47.410000 1.648000 5.039000  #  ohs
43 1  3 -1.050000 46.157000 3.410000 7.247000  #  ob
44 1  3 -1.050000 8.311000 1.439000 7.247000  #  ob
45 1  3 -1.050000 7.452000 3.959000 7.090000  #  ob
46 1  1 1.575000 46.479000 5.975000 4.000000  #  ao
47 1  2 2.100000 47.266000 4.432000 6.658000  #  st
48 1  2 2.100000 47.335000 7.397000 6.658000  #  st
49 1  4 -1.180800 47.165000 4.496000 5.039000  #  obos
50 1  4 -1.180800 47.435000 7.318000 5.039000  #  obos
51 1  5 -1.080800 8.719000 6.127000 5.039000  #  ohs
52 1  3 -1.050000 7.466000 7.889000 7.247000  #  ob
53 1  3 -1.050000 47.041000 5.918000 7.247000  #  ob
54 1  3 -1.050000 46.182000 8.438000 7.090000  #  ob
55 1  7 1.360000 7.775000 7.462000 4.000000  #  mgo
56 1  2 2.100000 6.949000 0.046000 1.342000  #  st
57 1  2 2.100000 6.918000 6.039000 1.342000  #  st
58 1  3 -1.050000 7.050000 -0.018000 2.961000  #  ob
59 1  4 -1.180800 48.109000 6.118000 2.961000  #  obos
60 1  5 -1.080800 9.404000 7.310000 2.961000  #  ohs
61 1  3 -1.050000 41.625000 5.548000 0.753000  #  ob
62 1  3 -1.050000 7.213000 7.518000 0.753000  #  ob
63 1  3 -1.050000 8.071000 4.999000 0.910000  #  ob
64 1  7 1.360000 46.466000 2.983000 4.000000  #  mgo
65 1  2 2.100000 9.549000 4.525000 1.342000  #  st
66 1  2 2.100000 9.479000 1.560000 1.342000  #  st
67 1  3 -1.050000 9.650000 4.461000 2.961000  #  ob
68 1  3 -1.050000 9.379000 1.639000 2.961000  #  ob
69 1  5 -1.080800 48.095000 2.831000 2.961000  #  ohs
70 1  3 -1.050000 8.057000 1.069000 0.753000  #  ob
71 1  3 -1.050000 9.774000 3.040000 0.753000  #  ob
72 1  3 -1.050000 41.601000 0.520000 0.910000  #  ob
73 1  8 0.425000 8.178000 5.159000 4.990000  #  hoy
74 1  8 0.425000 40.914000 8.278000 3.001000  #  hoy
75 1  8 0.425000 7.367000 3.781000 2.854000  #  hoy
76 1  8 0.425000 46.846000 0.692000 5.056000  #  hoy
77 1  8 0.425000 44.289000 5.170000 4.978000  #  hoy
78 1  8 0.425000 46.090000 8.253000 2.780000  #  hoy
79 1  8 0.425000 41.685000 0.692000 5.010000  #  hoy
80 1  8 0.425000 43.497000 3.783000 2.872000  #  hoy
81 1  1 1.575000 12.910000 1.496000 4.000000  #  ao
82 1  2 2.100000 13.697000 -0.046000 6.658000  #  st
83 1  2 2.100000 13.767000 2.918000 6.658000  #  st
84 1  3 -1.050000 13.596000 0.018000 5.039000  #  ob
85 1  3 -1.050000 13.866000 2.839000 5.039000  #  ob
86 1  6 -0.950000 11.281000 1.648000 5.039000  #  ohy
87 1  3 -1.050000 10.028000 3.410000 7.247000  #  ob
88 1  3 -1.050000 13.472000 1.439000 7.247000  #  ob
89 1  3 -1.050000 12.614000 3.959000 7.090000  #  ob
90 1  1 1.575000 10.349000 5.975000 4.000000  #  ao
91 1  2 2.100000 11.136000 4.432000 6.658000  #  st
92 1  2 2.100000 11.206000 7.397000 6.658000  #  st
93 1  3 -1.050000 11.035000 4.496000 5.039000  #  ob
94 1  3 -1.050000 11.305000 7.318000 5.039000  #  ob
95 1  5 -1.080800 13.881000 6.127000 5.039000  #  ohs
96 1  3 -1.050000 12.628000 7.889000 7.247000  #  ob
97 1  3 -1.050000 10.911000 5.918000 7.247000  #  ob
98 1  3 -1.050000 10.052000 8.438000 7.090000  #  ob
99 1  1 1.575000 12.936000 7.462000 4.000000  #  ao
100 1  2 2.100000 12.110000 0.046000 1.342000  #  st
101 1  2 2.100000 12.079000 6.039000 1.342000  #  st
102 1  3 -1.050000 12.211000 -0.018000 2.961000  #  ob
103 1  3 -1.050000 11.980000 6.118000 2.961000  #  ob
104 1  5 -1.080800 14.566000 7.310000 2.961000  #  ohs
105 1  3 -1.050000 15.818000 5.548000 0.753000  #  ob
106 1  3 -1.050000 12.374000 7.518000 0.753000  #  ob
107 1  3 -1.050000 13.233000 4.999000 0.910000  #  ob
108 1  1 1.575000 10.336000 2.983000 4.000000  #  ao
109 1  2 2.100000 14.710000 4.525000 1.342000  #  st
110 1  2 2.100000 14.640000 1.560000 1.342000  #  st
111 1  4 -1.180800 14.811000 4.461000 2.961000  #  obos
112 1  3 -1.050000 14.541000 1.639000 2.961000  #  ob
113 1  6 -0.950000 11.965000 2.831000 2.961000  #  ohy
114 1  3 -1.050000 13.218000 1.069000 0.753000  #  ob
115 1  3 -1.050000 14.935000 3.040000 0.753000  #  ob
116 1  3 -1.050000 15.794000 0.520000 0.910000  #  ob
117 1  7 1.360000 18.071000 1.496000 4.000000  #  mgo
118 1  2 2.100000 18.858000 -0.046000 6.658000  #  st
119 1  2 2.100000 18.928000 2.918000 6.658000  #  st
120 1  4 -1.180800 18.757000 0.018000 5.039000  #  obos
121 1  4 -1.180800 19.028000 2.839000 5.039000  #  obos
122 1  5 -1.080800 16.442000 1.648000 5.039000  #  ohs
123 1  3 -1.050000 15.189000 3.410000 7.247000  #  ob
124 1  3 -1.050000 18.633000 1.439000 7.247000  #  ob
125 1  3 -1.050000 17.775000 3.959000 7.090000  #  ob
126 1  7 1.360000 15.510000 5.975000 4.000000  #  mgo
127 1  2 2.100000 16.297000 4.432000 6.658000  #  st
128 1  2 2.100000 16.367000 7.397000 6.658000  #  st
129 1  4 -1.180800 16.196000 4.496000 5.039000  #  obos
130 1  4 -1.180800 16.467000 7.318000 5.039000  #  obos
131 1  5 -1.080800 19.042000 6.127000 5.039000  #  ohs
132 1  3 -1.050000 17.789000 7.889000 7.247000  #  ob
133 1  3 -1.050000 16.072000 5.918000 7.247000  #  ob
134 1  3 -1.050000 15.214000 8.438000 7.090000  #  ob
135 1  1 1.575000 18.097000 7.462000 4.000000  #  ao
136 1  2 2.100000 17.271000 0.046000 1.342000  #  st
137 1  2 2.100000 17.241000 6.039000 1.342000  #  st
138 1  4 -1.180800 17.372000 -0.018000 2.961000  #  obos
139 1  4 -1.180800 17.141000 6.118000 2.961000  #  obos
140 1  5 -1.080800 19.727000 7.310000 2.961000  #  ohs
141 1  3 -1.050000 10.657000 5.548000 0.753000  #  ob
142 1  3 -1.050000 17.535000 7.518000 0.753000  #  ob
143 1  3 -1.050000 18.394000 4.999000 0.910000  #  ob
144 1  1 1.575000 15.497000 2.983000 4.000000  #  ao
145 1  2 2.100000 19.872000 4.525000 1.342000  #  st
146 1  2 2.100000 19.802000 1.560000 1.342000  #  st
147 1  4 -1.180800 19.973000 4.461000 2.961000  #  obos
148 1  4 -1.180800 19.702000 1.639000 2.961000  #  obos
149 1  5 -1.080800 17.127000 2.831000 2.961000  #  ohs
150 1  3 -1.050000 18.380000 1.069000 0.753000  #  ob
151 1  3 -1.050000 20.097000 3.040000 0.753000  #  ob
152 1  3 -1.050000 10.632000 0.520000 0.910000  #  ob
153 1  8 0.425000 18.501000 5.159000 4.990000  #  hoy
154 1  8 0.425000 9.946000 8.278000 3.001000  #  hoy
155 1  8 0.425000 17.690000 3.781000 2.854000  #  hoy
156 1  8 0.425000 15.877000 0.692000 5.056000  #  hoy
157 1  8 0.425000 13.320000 5.170000 4.978000  #  hoy
158 1  8 0.425000 15.122000 8.253000 2.780000  #  hoy
159 1  8 0.425000 10.716000 0.692000 5.010000  #  hoy
160 1  8 0.425000 12.529000 3.783000 2.872000  #  hoy
161 1  7 1.360000 23.233000 1.496000 4.000000  #  mgo
162 1  2 2.100000 24.020000 -0.046000 6.658000  #  st
163 1  2 2.100000 24.090000 2.918000 6.658000  #  st
164 1  4 -1.180800 23.919000 0.018000 5.039000  #  obos
165 1  4 -1.180800 24.189000 2.839000 5.039000  #  obos
166 1  5 -1.080800 21.603000 1.648000 5.039000  #  ohs
167 1  3 -1.050000 20.350000 3.410000 7.247000  #  ob
168 1  3 -1.050000 23.795000 1.439000 7.247000  #  ob
169 1  3 -1.050000 22.936000 3.959000 7.090000  #  ob
170 1  7 1.360000 20.672000 5.975000 4.000000  #  mgo
171 1  2 2.100000 21.459000 4.432000 6.658000  #  st
172 1  2 2.100000 21.528000 7.397000 6.658000  #  st
173 1  4 -1.180800 21.358000 4.496000 5.039000  #  obos
174 1  4 -1.180800 21.628000 7.318000 5.039000  #  obos
175 1  5 -1.080800 24.204000 6.127000 5.039000  #  ohs
176 1  3 -1.050000 22.951000 7.889000 7.247000  #  ob
177 1  3 -1.050000 21.234000 5.918000 7.247000  #  ob
178 1  3 -1.050000 20.375000 8.438000 7.090000  #  ob
179 1  1 1.575000 23.259000 7.462000 4.000000  #  ao
180 1  2 2.100000 22.433000 0.046000 1.342000  #  st
181 1  2 2.100000 22.402000 6.039000 1.342000  #  st
182 1  4 -1.180800 22.534000 -0.018000 2.961000  #  obos
183 1  4 -1.180800 22.302000 6.118000 2.961000  #  obos
184 1  5 -1.080800 24.888000 7.310000 2.961000  #  ohs
185 1  3 -1.050000 26.141000 5.548000 0.753000  #  ob
186 1  3 -1.050000 22.697000 7.518000 0.753000  #  ob
187 1  3 -1.050000 23.555000 4.999000 0.910000  #  ob
188 1  1 1.575000 20.659000 2.983000 4.000000  #  ao
189 1  2 2.100000 25.033000 4.525000 1.342000  #  st
190 1  2 2.100000 24.963000 1.560000 1.342000  #  st
191 1  4 -1.180800 25.134000 4.461000 2.961000  #  obos
192 1  4 -1.180800 24.864000 1.639000 2.961000  #  obos
193 1  5 -1.080800 22.288000 2.831000 2.961000  #  ohs
194 1  3 -1.050000 23.541000 1.069000 0.753000  #  ob
195 1  3 -1.050000 25.258000 3.040000 0.753000  #  ob
196 1  3 -1.050000 26.117000 0.520000 0.910000  #  ob
197 1  1 1.575000 28.394000 1.496000 4.000000  #  ao
198 1  2 2.100000 29.181000 -0.046000 6.658000  #  st
199 1  2 2.100000 29.251000 2.918000 6.658000  #  st
200 1  3 -1.050000 29.080000 0.018000 5.039000  #  ob
201 1  3 -1.050000 29.351000 2.839000 5.039000  #  ob
202 1  6 -0.950000 26.765000 1.648000 5.039000  #  ohy
203 1  3 -1.050000 25.512000 3.410000 7.247000  #  ob
204 1  3 -1.050000 28.956000 1.439000 7.247000  #  ob
205 1  3 -1.050000 28.098000 3.959000 7.090000  #  ob
206 1  7 1.360000 25.833000 5.975000 4.000000  #  mgo
207 1  2 2.100000 26.620000 4.432000 6.658000  #  st
208 1  2 2.100000 26.690000 7.397000 6.658000  #  st
209 1  4 -1.180800 26.519000 4.496000 5.039000  #  obos
210 1  4 -1.180800 26.789000 7.318000 5.039000  #  obos
211 1  6 -0.950000 29.365000 6.127000 5.039000  #  ohy
212 1  3 -1.050000 28.112000 7.889000 7.247000  #  ob
213 1  3 -1.050000 26.395000 5.918000 7.247000  #  ob
214 1  3 -1.050000 25.537000 8.438000 7.090000  #  ob
215 1  1 1.575000 28.420000 7.462000 4.000000  #  ao
216 1  2 2.100000 27.594000 0.046000 1.342000  #  st
217 1  2 2.100000 27.564000 6.039000 1.342000  #  st
218 1  3 -1.050000 27.695000 -0.018000 2.961000  #  ob
219 1  4 -1.180800 27.464000 6.118000 2.961000  #  obos
220 1  6 -0.950000 30.050000 7.310000 2.961000  #  ohy
221 1  3 -1.050000 20.980000 5.548000 0.753000  #  ob
222 1  3 -1.050000 27.858000 7.518000 0.753000  #  ob
223 1  3 -1.050000 28.717000 4.999000 0.910000  #  ob
224 1  1 1.575000 25.820000 2.983000 4.000000  #  ao
225 1  2 2.100000 30.194000 4.525000 1.342000  #  st
226 1  2 2.100000 30.125000 1.560000 1.342000  #  st
227 1  3 -1.050000 30.295000 4.461000 2.961000  #  ob
228 1  3 -1.050000 30.025000 1.639000 2.961000  #  ob
229 1  6 -0.950000 27.450000 2.831000 2.961000  #  ohy
230 1  3 -1.050000 28.702000 1.069000 0.753000  #  ob
231 1  3 -1.050000 30.419000 3.040000 0.753000  #  ob
232 1  3 -1.050000 20.955000 0.520000 0.910000  #  ob
233 1  8 0.425000 28.823000 5.159000 4.990000  #  hoy
234 1  8 0.425000 20.269000 8.278000 3.001000  #  hoy
235 1  8 0.425000 28.013000 3.781000 2.854000  #  hoy
236 1  8 0.425000 26.200000 0.692000 5.056000  #  hoy
237 1  8 0.425000 23.643000 5.170000 4.978000  #  hoy
238 1  8 0.425000 25.444000 8.253000 2.780000  #  hoy
239 1  8 0.425000 21.039000 0.692000 5.010000  #  hoy
240 1  8 0.425000 22.851000 3.783000 2.872000  #  hoy
241 1  1 1.575000 33.556000 1.496000 4.000000  #  ao
242 1  2 2.100000 34.343000 -0.046000 6.658000  #  st
243 1  2 2.100000 34.412000 2.918000 6.658000  #  st
244 1  3 -1.050000 34.242000 0.018000 5.039000  #  ob
245 1  4 -1.180800 34.512000 2.839000 5.039000  #  obos
246 1  6 -0.950000 31.926000 1.648000 5.039000  #  ohy
247 1  3 -1.050000 30.673000 3.410000 7.247000  #  ob
248 1  3 -1.050000 34.118000 1.439000 7.247000  #  ob
249 1  3 -1.050000 33.259000 3.959000 7.090000  #  ob
250 1  1 1.575000 30.994000 5.975000 4.000000  #  ao
251 1  2 2.100000 31.782000 4.432000 6.658000  #  st
252 1  2 2.100000 31.851000 7.397000 6.658000  #  st
253 1  3 -1.050000 31.680000 4.496000 5.039000  #  ob
254 1  3 -1.050000 31.951000 7.318000 5.039000  #  ob
255 1  6 -0.950000 34.526000 6.127000 5.039000  #  ohy
256 1  3 -1.050000 33.273000 7.889000 7.247000  #  ob
257 1  3 -1.050000 31.556000 5.918000 7.247000  #  ob
258 1  3 -1.050000 30.698000 8.438000 7.090000  #  ob
259 1  1 1.575000 33.582000 7.462000 4.000000  #  ao
260 1  2 2.100000 32.756000 0.046000 1.342000  #  st
261 1  2 2.100000 32.725000 6.039000 1.342000  #  st
262 1  3 -1.050000 32.857000 -0.018000 2.961000  #  ob
263 1  3 -1.050000 32.625000 6.118000 2.961000  #  ob
264 1  6 -0.950000 35.211000 7.310000 2.961000  #  ohy
265 1  3 -1.050000 36.464000 5.548000 0.753000  #  ob
266 1  3 -1.050000 33.020000 7.518000 0.753000  #  ob
267 1  3 -1.050000 33.878000 4.999000 0.910000  #  ob
268 1  1 1.575000 30.981000 2.983000 4.000000  #  ao
269 1  2 2.100000 35.356000 4.525000 1.342000  #  st
270 1  2 2.100000 35.286000 1.560000 1.342000  #  st
271 1  4 -1.180800 35.457000 4.461000 2.961000  #  obos
272 1  4 -1.180800 35.186000 1.639000 2.961000  #  obos
273 1  6 -0.950000 32.611000 2.831000 2.961000  #  ohy
274 1  3 -1.050000 33.864000 1.069000 0.753000  #  ob
275 1  3 -1.050000 35.581000 3.040000 0.753000  #  ob
276 1  3 -1.050000 36.439000 0.520000 0.910000  #  ob
277 1  1 1.575000 38.717000 1.496000 4.000000  #  ao
278 1  2 2.100000 39.504000 -0.046000 6.658000  #  st
279 1  2 2.100000 39.574000 2.918000 6.658000  #  st
280 1  4 -1.180800 39.403000 0.018000 5.039000  #  obos
281 1  4 -1.180800 39.673000 2.839000 5.039000  #  obos
282 1  5 -1.080800 37.088000 1.648000 5.039000  #  ohs
283 1  3 -1.050000 35.835000 3.410000 7.247000  #  ob
284 1  3 -1.050000 39.279000 1.439000 7.247000  #  ob
285 1  3 -1.050000 38.421000 3.959000 7.090000  #  ob
286 1  1 1.575000 36.156000 5.975000 4.000000  #  ao
287 1  2 2.100000 36.943000 4.432000 6.658000  #  st
288 1  2 2.100000 37.013000 7.397000 6.658000  #  st
289 1  4 -1.180800 36.842000 4.496000 5.039000  #  obos
290 1  3 -1.050000 37.112000 7.318000 5.039000  #  ob
291 1  6 -0.950000 39.688000 6.127000 5.039000  #  ohy
292 1  3 -1.050000 38.435000 7.889000 7.247000  #  ob
293 1  3 -1.050000 36.718000 5.918000 7.247000  #  ob
294 1  3 -1.050000 35.859000 8.438000 7.090000  #  ob
295 1  1 1.575000 38.743000 7.462000 4.000000  #  ao
296 1  2 2.100000 37.917000 0.046000 1.342000  #  st
297 1  2 2.100000 37.886000 6.039000 1.342000  #  st
298 1  4 -1.180800 38.018000 -0.018000 2.961000  #  obos
299 1  3 -1.050000 37.787000 6.118000 2.961000  #  ob
300 1  6 -0.950000 40.373000 7.310000 2.961000  #  ohy
301 1  3 -1.050000 31.303000 5.548000 0.753000  #  ob
302 1  3 -1.050000 38.181000 7.518000 0.753000  #  ob
303 1  3 -1.050000 39.040000 4.999000 0.910000  #  ob
304 1  7 1.360000 36.143000 2.983000 4.000000  #  mgo
305 1  2 2.100000 40.517000 4.525000 1.342000  #  st
306 1  2 2.100000 40.447000 1.560000 1.342000  #  st
307 1  4 -1.180800 40.618000 4.461000 2.961000  #  obos
308 1  4 -1.180800 40.348000 1.639000 2.961000  #  obos
309 1  5 -1.080800 37.772000 2.831000 2.961000  #  ohs
310 1  3 -1.050000 39.025000 1.069000 0.753000  #  ob
311 1  3 -1.050000 40.742000 3.040000 0.753000  #  ob
312 1  3 -1.050000 31.278000 0.520000 0.910000  #  ob
313 1  8 0.425000 39.146000 5.159000 4.990000  #  hoy
314 1  8 0.425000 30.591000 8.278000 3.001000  #  hoy
315 1  8 0.425000 38.336000 3.781000 2.854000  #  hoy
316 1  8 0.425000 36.523000 0.692000 5.056000  #  hoy
317 1  8 0.425000 33.966000 5.170000 4.978000  #  hoy
318 1  8 0.425000 35.767000 8.253000 2.780000  #  hoy
319 1  8 0.425000 31.362000 0.692000 5.010000  #  hoy
320 1  8 0.425000 33.174000 3.783000 2.872000  #  hoy
321 1  1 1.575000 43.918000 10.453000 4.000000  #  ao
322 1  2 2.100000 44.705000 8.911000 6.658000  #  st
323 1  2 2.100000 44.774000 11.876000 6.658000  #  st
324 1  3 -1.050000 44.604000 8.975000 5.039000  #  ob
325 1  3 -1.050000 44.874000 11.797000 5.039000  #  ob
326 1  6 -0.950000 42.288000 10.605000 5.039000  #  ohy
327 1  3 -1.050000 41.035000 12.367000 7.247000  #  ob
328 1  3 -1.050000 44.479000 10.397000 7.247000  #  ob
329 1  3 -1.050000 43.621000 12.916000 7.090000  #  ob
330 1  7 1.360000 41.356000 14.932000 4.000000  #  mgo
331 1  2 2.100000 42.143000 13.390000 6.658000  #  st
332 1  2 2.100000 42.213000 16.355000 6.658000  #  st
333 1  4 -1.180800 42.042000 13.454000 5.039000  #  obos
334 1  4 -1.180800 42.313000 16.276000 5.039000  #  obos
335 1  6 -0.950000 44.888000 15.084000 5.039000  #  ohy
336 1  3 -1.050000 43.635000 16.846000 7.247000  #  ob
337 1  3 -1.050000 41.918000 14.875000 7.247000  #  ob
338 1  3 -1.050000 41.060000 17.395000 7.090000  #  ob
339 1  1 1.575000 43.944000 16.419000 4.000000  #  ao
340 1  2 2.100000 43.117000 9.004000 1.342000  #  st
341 1  2 2.100000 43.087000 14.997000 1.342000  #  st
342 1  3 -1.050000 43.218000 8.940000 2.961000  #  ob
343 1  4 -1.180800 42.987000 15.076000 2.961000  #  obos
344 1  6 -0.950000 45.573000 16.267000 2.961000  #  ohy
345 1  3 -1.050000 46.826000 14.505000 0.753000  #  ob
346 1  3 -1.050000 43.382000 16.476000 0.753000  #  ob
347 1  3 -1.050000 44.240000 13.956000 0.910000  #  ob
348 1  1 1.575000 41.343000 11.940000 4.000000  #  ao
349 1  2 2.100000 45.718000 13.483000 1.342000  #  st
350 1  2 2.100000 45.648000 10.518000 1.342000  #  st
351 1  3 -1.050000 45.819000 13.419000 2.961000  #  ob
352 1  3 -1.050000 45.548000 10.597000 2.961000  #  ob
353 1  6 -0.950000 42.973000 11.788000 2.961000  #  ohy
354 1  3 -1.050000 44.226000 10.026000 0.753000  #  ob
355 1  3 -1.050000 45.943000 11.997000 0.753000  #  ob
356 1  3 -1.050000 46.801000 9.477000 0.910000  #  ob
357 1  1 1.575000 7.788000 10.453000 4.000000  #  ao
358 1  2 2.100000 8.575000 8.911000 6.658000  #  st
359 1  2 2.100000 8.644000 11.876000 6.658000  #  st
360 1  4 -1.180800 8.474000 8.975000 5.039000  #  obos
361 1  4 -1.180800 8.744000 11.797000 5.039000  #  obos
362 1  6 -0.950000 47.449000 10.605000 5.039000  #  ohy
363 1  3 -1.050000 46.197000 12.367000 7.247000  #  ob
364 1  3 -1.050000 8.350000 10.397000 7.247000  #  ob
365 1  3 -1.050000 7.491000 12.916000 7.090000  #  ob
366 1  1 1.575000 46.518000 14.932000 4.000000  #  ao
367 1  2 2.100000 47.305000 13.390000 6.658000  #  st
368 1  2 2.100000 47.375000 16.355000 6.658000  #  st
369 1  3 -1.050000 47.204000 13.454000 5.039000  #  ob
370 1  3 -1.050000 47.474000 16.276000 5.039000  #  ob
371 1  6 -0.950000 8.758000 15.084000 5.039000  #  ohy
372 1  3 -1.050000 7.506000 16.846000 7.247000  #  ob
373 1  3 -1.050000 47.080000 14.875000 7.247000  #  ob
374 1  3 -1.050000 46.221000 17.395000 7.090000  #  ob
375 1  1 1.575000 7.814000 16.419000 4.000000  #  ao
376 1  2 2.100000 6.988000 9.004000 1.342000  #  st
377 1  2 2.100000 6.957000 14.997000 1.342000  #  st
378 1  4 -1.180800 7.089000 8.940000 2.961000  #  obos
379 1  3 -1.050000 6.857000 15.076000 2.961000  #  ob
380 1  6 -0.950000 9.443000 16.267000 2.961000  #  ohy
381 1  3 -1.050000 41.665000 14.505000 0.753000  #  ob
382 1  3 -1.050000 7.252000 16.476000 0.753000  #  ob
383 1  3 -1.050000 8.110000 13.956000 0.910000  #  ob
384 1  1 1.575000 46.505000 11.940000 4.000000  #  ao
385 1  2 2.100000 9.588000 13.483000 1.342000  #  st
386 1  2 2.100000 9.518000 10.518000 1.342000  #  st
387 1  4 -1.180800 9.689000 13.419000 2.961000  #  obos
388 1  4 -1.180800 9.418000 10.597000 2.961000  #  obos
389 1  6 -0.950000 6.843000 11.788000 2.961000  #  ohy
390 1  3 -1.050000 8.096000 10.026000 0.753000  #  ob
391 1  3 -1.050000 9.813000 11.997000 0.753000  #  ob
392 1  3 -1.050000 41.640000 9.477000 0.910000  #  ob
393 1  8 0.425000 8.217000 14.117000 4.990000  #  hoy
394 1  8 0.425000 40.953000 17.235000 3.001000  #  hoy
395 1  8 0.425000 7.406000 12.739000 2.854000  #  hoy
396 1  8 0.425000 46.885000 9.650000 5.056000  #  hoy
397 1  8 0.425000 44.328000 14.128000 4.978000  #  hoy
398 1  8 0.425000 46.129000 17.211000 2.780000  #  hoy
399 1  8 0.425000 41.724000 9.650000 5.010000  #  hoy
400 1  8 0.425000 43.536000 12.741000 2.872000  #  hoy
401 1  1 1.575000 12.949000 10.453000 4.000000  #  ao
402 1  2 2.100000 13.736000 8.911000 6.658000  #  st
403 1  2 2.100000 13.806000 11.876000 6.658000  #  st
404 1  3 -1.050000 13.635000 8.975000 5.039000  #  ob
405 1  4 -1.180800 13.906000 11.797000 5.039000  #  obos
406 1  5 -1.080800 11.320000 10.605000 5.039000  #  ohs
407 1  3 -1.050000 10.067000 12.367000 7.247000  #  ob
408 1  3 -1.050000 13.511000 10.397000 7.247000  #  ob
409 1  3 -1.050000 12.653000 12.916000 7.090000  #  ob
410 1  1 1.575000 10.388000 14.932000 4.000000  #  ao
411 1  2 2.100000 11.175000 13.390000 6.658000  #  st
412 1  2 2.100000 11.245000 16.355000 6.658000  #  st
413 1  4 -1.180800 11.074000 13.454000 5.039000  #  obos
414 1  3 -1.050000 11.344000 16.276000 5.039000  #  ob
415 1  6 -0.950000 13.920000 15.084000 5.039000  #  ohy
416 1  3 -1.050000 12.667000 16.846000 7.247000  #  ob
417 1  3 -1.050000 10.950000 14.875000 7.247000  #  ob
418 1  3 -1.050000 10.091000 17.395000 7.090000  #  ob
419 1  1 1.575000 12.975000 16.419000 4.000000  #  ao
420 1  2 2.100000 12.149000 9.004000 1.342000  #  st
421 1  2 2.100000 12.118000 14.997000 1.342000  #  st
422 1  3 -1.050000 12.250000 8.940000 2.961000  #  ob
423 1  3 -1.050000 12.019000 15.076000 2.961000  #  ob
424 1  6 -0.950000 14.605000 16.267000 2.961000  #  ohy
425 1  3 -1.050000 15.858000 14.505000 0.753000  #  ob
426 1  3 -1.050000 12.413000 16.476000 0.753000  #  ob
427 1  3 -1.050000 13.272000 13.956000 0.910000  #  ob
428 1  7 1.360000 10.375000 11.940000 4.000000  #  mgo
429 1  2 2.100000 14.749000 13.483000 1.342000  #  st
430 1  2 2.100000 14.680000 10.518000 1.342000  #  st
431 1  4 -1.180800 14.850000 13.419000 2.961000  #  obos
432 1  4 -1.180800 14.580000 10.597000 2.961000  #  obos
433 1  5 -1.080800 12.004000 11.788000 2.961000  #  ohs
434 1  3 -1.050000 13.257000 10.026000 0.753000  #  ob
435 1  3 -1.050000 14.974000 11.997000 0.753000  #  ob
436 1  3 -1.050000 15.833000 9.477000 0.910000  #  ob
437 1  1 1.575000 18.111000 10.453000 4.000000  #  ao
438 1  2 2.100000 18.898000 8.911000 6.658000  #  st
439 1  2 2.100000 18.967000 11.876000 6.658000  #  st
440 1  3 -1.050000 18.797000 8.975000 5.039000  #  ob
441 1  3 -1.050000 19.067000 11.797000 5.039000  #  ob
442 1  5 -1.080800 16.481000 10.605000 5.039000  #  ohs
443 1  3 -1.050000 15.228000 12.367000 7.247000  #  ob
444 1  3 -1.050000 18.672000 10.397000 7.247000  #  ob
445 1  3 -1.050000 17.814000 12.916000 7.090000  #  ob
446 1  1 1.575000 15.549000 14.932000 4.000000  #  ao
447 1  2 2.100000 16.336000 13.390000 6.658000  #  st
448 1  2 2.100000 16.406000 16.355000 6.658000  #  st
449 1  4 -1.180800 16.235000 13.454000 5.039000  #  obos
450 1  3 -1.050000 16.506000 16.276000 5.039000  #  ob
451 1  6 -0.950000 19.081000 15.084000 5.039000  #  ohy
452 1  3 -1.050000 17.828000 16.846000 7.247000  #  ob
453 1  3 -1.050000 16.111000 14.875000 7.247000  #  ob
454 1  3 -1.050000 15.253000 17.395000 7.090000  #  ob
455 1  1 1.575000 18.137000 16.419000 4.000000  #  ao
456 1  2 2.100000 17.310000 9.004000 1.342000  #  st
457 1  2 2.100000 17.280000 14.997000 1.342000  #  st
458 1  3 -1.050000 17.411000 8.940000 2.961000  #  ob
459 1  3 -1.050000 17.180000 15.076000 2.961000  #  ob
460 1  6 -0.950000 19.766000 16.267000 2.961000  #  ohy
461 1  3 -1.050000 10.696000 14.505000 0.753000  #  ob
462 1  3 -1.050000 17.575000 16.476000 0.753000  #  ob
463 1  3 -1.050000 18.433000 13.956000 0.910000  #  ob
464 1  7 1.360000 15.536000 11.940000 4.000000  #  mgo
465 1  2 2.100000 19.911000 13.483000 1.342000  #  st
466 1  2 2.100000 19.841000 10.518000 1.342000  #  st
467 1  3 -1.050000 20.012000 13.419000 2.961000  #  ob
468 1  3 -1.050000 19.741000 10.597000 2.961000  #  ob
469 1  5 -1.080800 17.166000 11.788000 2.961000  #  ohs
470 1  3 -1.050000 18.419000 10.026000 0.753000  #  ob
471 1  3 -1.050000 20.136000 11.997000 0.753000  #  ob
472 1  3 -1.050000 10.671000 9.477000 0.910000  #  ob
473 1  8 0.425000 18.540000 14.117000 4.990000  #  hoy
474 1  8 0.425000 9.985000 17.235000 3.001000  #  hoy
475 1  8 0.425000 17.729000 12.739000 2.854000  #  hoy
476 1  8 0.425000 15.916000 9.650000 5.056000  #  hoy
477 1  8 0.425000 13.359000 14.128000 4.978000  #  hoy
478 1  8 0.425000 15.161000 17.211000 2.780000  #  hoy
479 1  8 0.425000 10.756000 9.650000 5.010000  #  hoy
480 1  8 0.425000 12.568000 12.741000 2.872000  #  hoy
481 1  7 1.360000 23.272000 10.453000 4.000000  #  mgo
482 1  2 2.100000 24.059000 8.911000 6.658000  #  st
483 1  2 2.100000 24.129000 11.876000 6.658000  #  st
484 1  4 -1.180800 23.958000 8.975000 5.039000  #  obos
485 1  4 -1.180800 24.228000 11.797000 5.039000  #  obos
486 1  5 -1.080800 21.642000 10.605000 5.039000  #  ohs
487 1  3 -1.050000 20.390000 12.367000 7.247000  #  ob
488 1  3 -1.050000 23.834000 10.397000 7.247000  #  ob
489 1  3 -1.050000 22.975000 12.916000 7.090000  #  ob
490 1  1 1.575000 20.711000 14.932000 4.000000  #  ao
491 1  2 2.100000 21.498000 13.390000 6.658000  #  st
492 1  2 2.100000 21.568000 16.355000 6.658000  #  st
493 1  3 -1.050000 21.397000 13.454000 5.039000  #  ob
494 1  4 -1.180800 21.667000 16.276000 5.039000  #  obos
495 1  5 -1.080800 24.243000 15.084000 5.039000  #  ohs
496 1  3 -1.050000 22.990000 16.846000 7.247000  #  ob
497 1  3 -1.050000 21.273000 14.875000 7.247000  #  ob
498 1  3 -1.050000 20.414000 17.395000 7.090000  #  ob
499 1  7 1.360000 23.298000 16.419000 4.000000  #  mgo
500 1  2 2.100000 22.472000 9.004000 1.342000  #  st
501 1  2 2.100000 22.441000 14.997000 1.342000  #  st
502 1  4 -1.180800 22.573000 8.940000 2.961000  #  obos
503 1  4 -1.180800 22.342000 15.076000 2.961000  #  obos
504 1  5 -1.080800 24.927000 16.267000 2.961000  #  ohs
505 1  3 -1.050000 26.180000 14.505000 0.753000  #  ob
506 1  3 -1.050000 22.736000 16.476000 0.753000  #  ob
507 1  3 -1.050000 23.594000 13.956000 0.910000  #  ob
508 1  1 1.575000 20.698000 11.940000 4.000000  #  ao
509 1  2 2.100000 25.072000 13.483000 1.342000  #  st
510 1  2 2.100000 25.002000 10.518000 1.342000  #  st
511 1  3 -1.050000 25.173000 13.419000 2.961000  #  ob
512 1  4 -1.180800 24.903000 10.597000 2.961000  #  obos
513 1  5 -1.080800 22.327000 11.788000 2.961000  #  ohs
514 1  3 -1.050000 23.580000 10.026000 0.753000  #  ob
515 1  3 -1.050000 25.297000 11.997000 0.753000  #  ob
516 1  3 -1.050000 26.156000 9.477000 0.910000  #  ob
517 1  7 1.360000 28.433000 10.453000 4.000000  #  mgo
518 1  2 2.100000 29.220000 8.911000 6.658000  #  st
519 1  2 2.100000 29.290000 11.876000 6.658000  #  st
520 1  4 -1.180800 29.119000 8.975000 5.039000  #  obos
521 1  4 -1.180800 29.390000 11.797000 5.039000  #  obos
522 1  5 -1.080800 26.804000 10.605000 5.039000  #  ohs
523 1  3 -1.050000 25.551000 12.367000 7.247000  #  ob
524 1  3 -1.050000 28.995000 10.397000 7.247000  #  ob
525 1  3 -1.050000 28.137000 12.916000 7.090000  #  ob
526 1  1 1.575000 25.872000 14.932000 4.000000  #  ao
527 1  2 2.100000 26.659000 13.390000 6.658000  #  st
528 1  2 2.100000 26.729000 16.355000 6.658000  #  st
529 1  3 -1.050000 26.558000 13.454000 5.039000  #  ob
530 1  3 -1.050000 26.829000 16.276000 5.039000  #  ob
531 1  6 -0.950000 29.404000 15.084000 5.039000  #  ohy
532 1  3 -1.050000 28.151000 16.846000 7.247000  #  ob